 Entering Gaussian System, Link 0=g09
 Initial command:
 /public/software/g09/g09/l1.exe /tmp/Gau-7440.inp -scrdir=/tmp/
 Entering Link 1 = /public/software/g09/g09/l1.exe PID=      7441.
  
 Copyright (c) 1988,1990,1992,1993,1995,1998,2003,2009,2010,
            Gaussian, Inc.  All Rights Reserved.
  
 This is part of the Gaussian(R) 09 program.  It is based on
 the Gaussian(R) 03 system (copyright 2003, Gaussian, Inc.),
 the Gaussian(R) 98 system (copyright 1998, Gaussian, Inc.),
 the Gaussian(R) 94 system (copyright 1995, Gaussian, Inc.),
 the Gaussian 92(TM) system (copyright 1992, Gaussian, Inc.),
 the Gaussian 90(TM) system (copyright 1990, Gaussian, Inc.),
 the Gaussian 88(TM) system (copyright 1988, Gaussian, Inc.),
 the Gaussian 86(TM) system (copyright 1986, Carnegie Mellon
 University), and the Gaussian 82(TM) system (copyright 1983,
 Carnegie Mellon University). Gaussian is a federally registered
 trademark of Gaussian, Inc.
  
 This software contains proprietary and confidential information,
 including trade secrets, belonging to Gaussian, Inc.
  
 This software is provided under written license and may be
 used, copied, transmitted, or stored only in accord with that
 written license.
  
 The following legend is applicable only to US Government
 contracts under FAR:
  
                    RESTRICTED RIGHTS LEGEND
  
 Use, reproduction and disclosure by the US Government is
 subject to restrictions as set forth in subparagraphs (a)
 and (c) of the Commercial Computer Software - Restricted
 Rights clause in FAR 52.227-19.
  
 Gaussian, Inc.
 340 Quinnipiac St., Bldg. 40, Wallingford CT 06492
  
  
 ---------------------------------------------------------------
 Warning -- This program may not be used in any manner that
 competes with the business of Gaussian, Inc. or will provide
 assistance to any competitor of Gaussian, Inc.  The licensee
 of this program is prohibited from giving any competitor of
 Gaussian, Inc. access to this program.  By using this program,
 the user acknowledges that Gaussian, Inc. is engaged in the
 business of creating and licensing software in the field of
 computational chemistry and represents and warrants to the
 licensee that it is not a competitor of Gaussian, Inc. and that
 it will not use this program in any manner prohibited above.
 ---------------------------------------------------------------
  

 Cite this work as:
 Gaussian 09, Revision B.01,
 M. J. Frisch, G. W. Trucks, H. B. Schlegel, G. E. Scuseria, 
 M. A. Robb, J. R. Cheeseman, G. Scalmani, V. Barone, B. Mennucci, 
 G. A. Petersson, H. Nakatsuji, M. Caricato, X. Li, H. P. Hratchian, 
 A. F. Izmaylov, J. Bloino, G. Zheng, J. L. Sonnenberg, M. Hada, 
 M. Ehara, K. Toyota, R. Fukuda, J. Hasegawa, M. Ishida, T. Nakajima, 
 Y. Honda, O. Kitao, H. Nakai, T. Vreven, J. A. Montgomery, Jr., 
 J. E. Peralta, F. Ogliaro, M. Bearpark, J. J. Heyd, E. Brothers, 
 K. N. Kudin, V. N. Staroverov, T. Keith, R. Kobayashi, J. Normand, 
 K. Raghavachari, A. Rendell, J. C. Burant, S. S. Iyengar, J. Tomasi, 
 M. Cossi, N. Rega, J. M. Millam, M. Klene, J. E. Knox, J. B. Cross, 
 V. Bakken, C. Adamo, J. Jaramillo, R. Gomperts, R. E. Stratmann, 
 O. Yazyev, A. J. Austin, R. Cammi, C. Pomelli, J. W. Ochterski, 
 R. L. Martin, K. Morokuma, V. G. Zakrzewski, G. A. Voth, 
 P. Salvador, J. J. Dannenberg, S. Dapprich, A. D. Daniels, 
 O. Farkas, J. B. Foresman, J. V. Ortiz, J. Cioslowski, 
 and D. J. Fox, Gaussian, Inc., Wallingford CT, 2010.
 
 ******************************************
 Gaussian 09:  EM64L-G09RevB.01 12-Aug-2010
                29-Mar-2021 
 ******************************************
 %mem=600MW
 %nprocshared=10
 Will use up to   10 processors via shared memory.
 ------------------------------------------------------
 # rb3lyp/6-311++g(2d,p) geom=connectivity polar=optrot
 ------------------------------------------------------
 1/38=1,57=2/1;
 2/12=2,17=6,18=5,40=1/2;
 3/5=4,6=6,7=1112,11=2,16=1,25=1,30=1,36=2,74=-5,116=1/1,2,3;
 4//1;
 5/5=2,38=5,96=-2,98=1/2;
 8/6=4,10=90,11=11/1;
 10/6=1,13=10,46=3,60=-2/2;
 6/7=2,8=2,9=2,10=2,28=1/1;
 99/5=1,9=1/99;
 -------------------
 Title Card Required
 -------------------
 Symbolic Z-matrix:
 Charge =  0 Multiplicity = 1
 C                    -1.52578   0.03933   3.21468 
 C                    -1.62313   1.26373   2.69198 
 C                    -1.75677   1.47415   1.20023 
 C                    -1.49271   0.22445   0.30374 
 C                    -0.99386  -1.08252   0.97755 
 C                    -1.55387  -1.22897   2.41102 
 C                    -0.53404   0.74324  -0.80038 
 C                     0.92935   0.61617  -0.43288 
 C                     1.44849  -0.37226   0.33345 
 C                     0.54428  -1.29223   1.02377 
 C                     2.93603  -0.47386   0.58408 
 O                     3.55303   0.48913   0.98915 
 C                     3.64532  -1.79501   0.27256 
 C                     4.66186  -1.57906  -0.87069 
 C                     4.33881  -2.32665   1.53682 
 O                     0.9773   -2.22587   1.6864 
 C                    -0.63758   2.2807   -0.84482 
 C                     0.72304   2.70221  -1.44838 
 O                     1.62905   1.61468  -0.96852 
 C                    -0.86241   2.6159    0.64096 
 O                    -0.71914   0.08556  -2.04148 
 C                    -1.60625  -2.1693    0.05526 
 C                    -2.96106  -1.57634  -0.31287 
 O                    -2.73189  -0.13615  -0.35858 
 C                    -3.63036  -2.00511  -1.60121 
 C                    -4.93539  -1.30949  -1.89605 
 C                    -3.13501  -2.95867  -2.39178 
 C                     0.73442   2.6848   -2.97546 
 C                     1.31096   4.00404  -0.91821 
 H                    -1.47337   2.61075  -1.46615 
 H                    -2.80045   1.74491   0.99449 
 C                    -1.6748    2.49795   3.55555 
 H                    -1.4643   -0.0705    4.2954 
 H                    -2.5881   -1.59435   2.36488 
 H                    -0.98476  -2.01578   2.9094 
 H                     2.8979   -2.52481  -0.05113 
 H                     5.38424  -0.81988  -0.55365 
 H                     5.2249   -2.51161  -0.99252 
 H                     4.86305  -3.26081   1.31484 
 H                     3.61268  -2.52511   2.32679 
 H                     5.06944  -1.60431   1.90879 
 H                    -1.31261   3.59932   0.78686 
 H                     0.09176   2.62038   1.17396 
 H                    -1.67205  -0.08501  -2.11631 
 H                    -1.68522  -3.13006   0.56637 
 H                    -0.98541  -2.29948  -0.8326 
 H                    -3.67748  -1.75315   0.5014 
 H                    -5.66166  -1.48758  -1.09442 
 H                    -4.80134  -0.226    -1.95737 
 H                    -5.37335  -1.65877  -2.83294 
 H                    -2.20648  -3.47537  -2.17899 
 H                    -3.65798  -3.26786  -3.2916 
 H                     0.33944   1.74805  -3.36505 
 H                     1.75458   2.81945  -3.34254 
 H                     0.12657   3.50809  -3.36207 
 H                     0.66169   4.84259  -1.18553 
 H                     2.29236   4.18195  -1.36277 
 H                     1.43254   3.99105   0.16435 
 H                    -1.65232   2.23912   4.61596 
 H                    -0.8363    3.17446   3.36117 
 H                    -2.59062   3.07261   3.3698 
 C                     4.04213  -1.18118  -2.21313 
 H                     3.53706  -0.2128   -2.15998 
 H                     3.30831  -1.91999  -2.55133 
 H                     4.8105   -1.10417  -2.98798 
 
 Stoichiometry    C26H34O5
 Framework group  C1[X(C26H34O5)]
 Deg. of freedom   189
 Full point group                 C1      NOp   1
 Largest Abelian subgroup         C1      NOp   1
 Largest concise Abelian subgroup C1      NOp   1
                         Standard orientation:                         
 ---------------------------------------------------------------------
 Center     Atomic      Atomic             Coordinates (Angstroms)
 Number     Number       Type             X           Y           Z
 ---------------------------------------------------------------------
      1          6           0       -1.525779    0.039325    3.214675
      2          6           0       -1.623125    1.263725    2.691976
      3          6           0       -1.756772    1.474146    1.200225
      4          6           0       -1.492714    0.224447    0.303744
      5          6           0       -0.993856   -1.082522    0.977553
      6          6           0       -1.553866   -1.228965    2.411024
      7          6           0       -0.534039    0.743237   -0.800382
      8          6           0        0.929345    0.616167   -0.432882
      9          6           0        1.448491   -0.372260    0.333445
     10          6           0        0.544280   -1.292231    1.023767
     11          6           0        2.936027   -0.473860    0.584075
     12          8           0        3.553028    0.489129    0.989152
     13          6           0        3.645315   -1.795014    0.272556
     14          6           0        4.661857   -1.579063   -0.870694
     15          6           0        4.338808   -2.326653    1.536821
     16          8           0        0.977297   -2.225872    1.686395
     17          6           0       -0.637582    2.280704   -0.844818
     18          6           0        0.723040    2.702210   -1.448380
     19          8           0        1.629045    1.614684   -0.968518
     20          6           0       -0.862407    2.615898    0.640960
     21          8           0       -0.719138    0.085555   -2.041476
     22          6           0       -1.606249   -2.169304    0.055262
     23          6           0       -2.961056   -1.576344   -0.312869
     24          8           0       -2.731893   -0.136146   -0.358580
     25          6           0       -3.630356   -2.005113   -1.601210
     26          6           0       -4.935385   -1.309494   -1.896045
     27          6           0       -3.135009   -2.958673   -2.391782
     28          6           0        0.734415    2.684800   -2.975461
     29          6           0        1.310963    4.004036   -0.918210
     30          1           0       -1.473373    2.610753   -1.466146
     31          1           0       -2.800453    1.744909    0.994486
     32          6           0       -1.674798    2.497951    3.555552
     33          1           0       -1.464297   -0.070498    4.295399
     34          1           0       -2.588096   -1.594354    2.364880
     35          1           0       -0.984761   -2.015780    2.909401
     36          1           0        2.897902   -2.524812   -0.051129
     37          1           0        5.384237   -0.819875   -0.553653
     38          1           0        5.224900   -2.511610   -0.992521
     39          1           0        4.863049   -3.260808    1.314840
     40          1           0        3.612681   -2.525105    2.326793
     41          1           0        5.069440   -1.604309    1.908785
     42          1           0       -1.312610    3.599323    0.786856
     43          1           0        0.091764    2.620376    1.173956
     44          1           0       -1.672051   -0.085007   -2.116307
     45          1           0       -1.685220   -3.130062    0.566371
     46          1           0       -0.985408   -2.299477   -0.832599
     47          1           0       -3.677475   -1.753149    0.501402
     48          1           0       -5.661659   -1.487576   -1.094419
     49          1           0       -4.801343   -0.225998   -1.957367
     50          1           0       -5.373354   -1.658767   -2.832935
     51          1           0       -2.206479   -3.475368   -2.178986
     52          1           0       -3.657979   -3.267856   -3.291599
     53          1           0        0.339437    1.748052   -3.365054
     54          1           0        1.754579    2.819452   -3.342544
     55          1           0        0.126565    3.508092   -3.362065
     56          1           0        0.661692    4.842593   -1.185526
     57          1           0        2.292359    4.181949   -1.362766
     58          1           0        1.432542    3.991047    0.164352
     59          1           0       -1.652322    2.239120    4.615955
     60          1           0       -0.836303    3.174459    3.361172
     61          1           0       -2.590620    3.072606    3.369800
     62          6           0        4.042131   -1.181179   -2.213125
     63          1           0        3.537064   -0.212797   -2.159977
     64          1           0        3.308305   -1.919992   -2.551331
     65          1           0        4.810502   -1.104167   -2.987975
 ---------------------------------------------------------------------
 Rotational constants (GHZ):      0.1886405      0.1301285      0.1224072
 Standard basis: 6-311++G(2d,p) (5D, 7F)
 There are  1075 symmetry adapted basis functions of A   symmetry.
 Integral buffers will be    131072 words long.
 Raffenetti 2 integral format.
 Two-electron integral symmetry is turned on.
  1075 basis functions,  1608 primitive gaussians,  1137 cartesian basis functions
   115 alpha electrons      115 beta electrons
       nuclear repulsion energy      3519.6944629171 Hartrees.
 NAtoms=   65 NActive=   65 NUniq=   65 SFac= 1.00D+00 NAtFMM=   50 NAOKFM=T Big=T
 One-electron integrals computed using PRISM.
 NBasis=  1075 RedAO= T  NBF=  1075
 NBsUse=  1065 1.00D-06 NBFU=  1065
 Harris functional with IExCor=  402 diagonalized for initial guess.
 ExpMin= 3.60D-02 ExpMax= 8.59D+03 ExpMxC= 1.30D+03 IAcc=3 IRadAn=         0 AccDes= 0.00D+00
 HarFok:  IExCor=  402 AccDes= 0.00D+00 IRadAn=         0 IDoV= 1
 ScaDFX=  1.000000  1.000000  1.000000  1.000000
 FoFCou: FMM=F IPFlag=           0 FMFlag=      100000 FMFlg1=        2001
         NFxFlg=           0 DoJE=T BraDBF=F KetDBF=T FulRan=T
         Omega=  0.000000  0.000000  1.000000  0.000000  0.000000 ICntrl=     500 IOpCl=  0
         NMat0=    1 NMatS0=    1 NMatT0=    0 NMatD0=    1 NMtDS0=    0 NMtDT0=    0
         I1Cent=           4 NGrid=           0.
 Petite list used in FoFCou.
 Initial guess orbital symmetries:
       Occupied  (A) (A) (A) (A) (A) (A) (A) (A) (A) (A) (A) (A)
                 (A) (A) (A) (A) (A) (A) (A) (A) (A) (A) (A) (A)
                 (A) (A) (A) (A) (A) (A) (A) (A) (A) (A) (A) (A)
                 (A) (A) (A) (A) (A) (A) (A) (A) (A) (A) (A) (A)
                 (A) (A) (A) (A) (A) (A) (A) (A) (A) (A) (A) (A)
                 (A) (A) (A) (A) (A) (A) (A) (A) (A) (A) (A) (A)
                 (A) (A) (A) (A) (A) (A) (A) (A) (A) (A) (A) (A)
                 (A) (A) (A) (A) (A) (A) (A) (A) (A) (A) (A) (A)
                 (A) (A) (A) (A) (A) (A) (A) (A) (A) (A) (A) (A)
                 (A) (A) (A) (A) (A) (A) (A)
       Virtual   (A) (A) (A) (A) (A) (A) (A) (A) (A) (A) (A) (A)
                 (A) (A) (A) (A) (A) (A) (A) (A) (A) (A) (A) (A)
                 (A) (A) (A) (A) (A) (A) (A) (A) (A) (A) (A) (A)
                 (A) (A) (A) (A) (A) (A) (A) (A) (A) (A) (A) (A)
                 (A) (A) (A) (A) (A) (A) (A) (A) (A) (A) (A) (A)
                 (A) (A) (A) (A) (A) (A) (A) (A) (A) (A) (A) (A)
                 (A) (A) (A) (A) (A) (A) (A) (A) (A) (A) (A) (A)
                 (A) (A) (A) (A) (A) (A) (A) (A) (A) (A) (A) (A)
                 (A) (A) (A) (A) (A) (A) (A) (A) (A) (A) (A) (A)
                 (A) (A) (A) (A) (A) (A) (A) (A) (A) (A) (A) (A)
                 (A) (A) (A) (A) (A) (A) (A) (A) (A) (A) (A) (A)
                 (A) (A) (A) (A) (A) (A) (A) (A) (A) (A) (A) (A)
                 (A) (A) (A) (A) (A) (A) (A) (A) (A) (A) (A) (A)
                 (A) (A) (A) (A) (A) (A) (A) (A) (A) (A) (A) (A)
                 (A) (A) (A) (A) (A) (A) (A) (A) (A) (A) (A) (A)
                 (A) (A) (A) (A) (A) (A) (A) (A) (A) (A) (A) (A)
                 (A) (A) (A) (A) (A) (A) (A) (A) (A) (A) (A) (A)
                 (A) (A) (A) (A) (A) (A) (A) (A) (A) (A) (A) (A)
                 (A) (A) (A) (A) (A) (A) (A) (A) (A) (A) (A) (A)
                 (A) (A) (A) (A) (A) (A) (A) (A) (A) (A) (A) (A)
                 (A) (A) (A) (A) (A) (A) (A) (A) (A) (A) (A) (A)
                 (A) (A) (A) (A) (A) (A) (A) (A) (A) (A) (A) (A)
                 (A) (A) (A) (A) (A) (A) (A) (A) (A) (A) (A) (A)
                 (A) (A) (A) (A) (A) (A) (A) (A) (A) (A) (A) (A)
                 (A) (A) (A) (A) (A) (A) (A) (A) (A) (A) (A) (A)
                 (A) (A) (A) (A) (A) (A) (A) (A) (A) (A) (A) (A)
                 (A) (A) (A) (A) (A) (A) (A) (A) (A) (A) (A) (A)
                 (A) (A) (A) (A) (A) (A) (A) (A) (A) (A) (A) (A)
                 (A) (A) (A) (A) (A) (A) (A) (A) (A) (A) (A) (A)
                 (A) (A) (A) (A) (A) (A) (A) (A) (A) (A) (A) (A)
                 (A) (A) (A) (A) (A) (A) (A) (A) (A) (A) (A) (A)
                 (A) (A) (A) (A) (A) (A) (A) (A) (A) (A) (A) (A)
                 (A) (A) (A) (A) (A) (A) (A) (A) (A) (A) (A) (A)
                 (A) (A) (A) (A) (A) (A) (A) (A) (A) (A) (A) (A)
                 (A) (A) (A) (A) (A) (A) (A) (A) (A) (A) (A) (A)
                 (A) (A) (A) (A) (A) (A) (A) (A) (A) (A) (A) (A)
                 (A) (A) (A) (A) (A) (A) (A) (A) (A) (A) (A) (A)
                 (A) (A) (A) (A) (A) (A) (A) (A) (A) (A) (A) (A)
                 (A) (A) (A) (A) (A) (A) (A) (A) (A) (A) (A) (A)
                 (A) (A) (A) (A) (A) (A) (A) (A) (A) (A) (A) (A)
                 (A) (A) (A) (A) (A) (A) (A) (A) (A) (A) (A) (A)
                 (A) (A) (A) (A) (A) (A) (A) (A) (A) (A) (A) (A)
                 (A) (A) (A) (A) (A) (A) (A) (A) (A) (A) (A) (A)
                 (A) (A) (A) (A) (A) (A) (A) (A) (A) (A) (A) (A)
                 (A) (A) (A) (A) (A) (A) (A) (A) (A) (A) (A) (A)
                 (A) (A) (A) (A) (A) (A) (A) (A) (A) (A) (A) (A)
                 (A) (A) (A) (A) (A) (A) (A) (A) (A) (A) (A) (A)
                 (A) (A) (A) (A) (A) (A) (A) (A) (A) (A) (A) (A)
                 (A) (A) (A) (A) (A) (A) (A) (A) (A) (A) (A) (A)
                 (A) (A) (A) (A) (A) (A) (A) (A) (A) (A) (A) (A)
                 (A) (A) (A) (A) (A) (A) (A) (A) (A) (A) (A) (A)
                 (A) (A) (A) (A) (A) (A) (A) (A) (A) (A) (A) (A)
                 (A) (A) (A) (A) (A) (A) (A) (A) (A) (A) (A) (A)
                 (A) (A) (A) (A) (A) (A) (A) (A) (A) (A) (A) (A)
                 (A) (A) (A) (A) (A) (A) (A) (A) (A) (A) (A) (A)
                 (A) (A) (A) (A) (A) (A) (A) (A) (A) (A) (A) (A)
                 (A) (A) (A) (A) (A) (A) (A) (A) (A) (A) (A) (A)
                 (A) (A) (A) (A) (A) (A) (A) (A) (A) (A) (A) (A)
                 (A) (A) (A) (A) (A) (A) (A) (A) (A) (A) (A) (A)
                 (A) (A) (A) (A) (A) (A) (A) (A) (A) (A) (A) (A)
                 (A) (A) (A) (A) (A) (A) (A) (A) (A) (A) (A) (A)
                 (A) (A) (A) (A) (A) (A) (A) (A) (A) (A) (A) (A)
                 (A) (A) (A) (A) (A) (A) (A) (A) (A) (A) (A) (A)
                 (A) (A) (A) (A) (A) (A) (A) (A) (A) (A) (A) (A)
                 (A) (A) (A) (A) (A) (A) (A) (A) (A) (A) (A) (A)
                 (A) (A) (A) (A) (A) (A) (A) (A) (A) (A) (A) (A)
                 (A) (A) (A) (A) (A) (A) (A) (A) (A) (A) (A) (A)
                 (A) (A) (A) (A) (A) (A) (A) (A) (A) (A) (A) (A)
                 (A) (A) (A) (A) (A) (A) (A) (A) (A) (A) (A) (A)
                 (A) (A) (A) (A) (A) (A) (A) (A) (A) (A) (A) (A)
                 (A) (A) (A) (A) (A) (A) (A) (A) (A) (A) (A) (A)
                 (A) (A) (A) (A) (A) (A) (A) (A) (A) (A) (A) (A)
                 (A) (A) (A) (A) (A) (A) (A) (A) (A) (A) (A) (A)
                 (A) (A) (A) (A) (A) (A) (A) (A) (A) (A) (A) (A)
                 (A) (A) (A) (A) (A) (A) (A) (A) (A) (A) (A) (A)
                 (A) (A) (A) (A) (A) (A) (A) (A) (A) (A) (A) (A)
                 (A) (A) (A) (A) (A) (A) (A) (A) (A) (A) (A) (A)
                 (A) (A) (A) (A) (A) (A) (A) (A) (A) (A) (A) (A)
                 (A) (A) (A) (A) (A) (A) (A) (A) (A) (A) (A) (A)
                 (A) (A)
 The electronic state of the initial guess is 1-A.
 Requested convergence on RMS density matrix=1.00D-08 within 128 cycles.
 Requested convergence on MAX density matrix=1.00D-06.
 Requested convergence on             energy=1.00D-06.
 No special actions if energy rises.
 SCF Done:  E(RB3LYP) =  -1387.73281766     A.U. after   16 cycles
             Convg  =    0.3877D-08             -V/T =  2.0044
 Range of M.O.s used for correlation:     1  1065
 NBasis=  1075 NAE=   115 NBE=   115 NFC=     0 NFV=     0
 NROrb=   1065 NOA=   115 NOB=   115 NVA=   950 NVB=   950

 **** Warning!!: The largest alpha MO coefficient is  0.94707938D+02

          Differentiating once with respect to electric field.
                with respect to dipole field.
          Differentiating once with respect to magnetic field using GIAOs.
          Electric field/nuclear overlap derivatives assumed to be zero.
 FoFCou: FMM=F IPFlag=           0 FMFlag=           0 FMFlg1=           0
         NFxFlg=           0 DoJE=F BraDBF=F KetDBF=T FulRan=T
         Omega=  0.000000  0.000000  1.000000  0.000000  0.000000 ICntrl=    6100 IOpCl=  0
         NMat0=    1 NMatS0=    1 NMatT0=    0 NMatD0=    1 NMtDS0=    0 NMtDT0=    0
         I1Cent=           7 NGrid=          65.
 Symmetry not used in FoFCou.
 CalDSu exits because no D1Ps are significant.
          There are     6 degrees of freedom in the 1st order CPHF.  IDoFFX=0.
      6 vectors produced by pass  0 Test12= 3.64D-12 1.67D-08 XBig12= 1.48D+03 6.66D+00.
 AX will form     6 AO Fock derivatives at one time.
      6 vectors produced by pass  1 Test12= 3.64D-12 1.67D-08 XBig12= 3.14D+02 2.51D+00.
      6 vectors produced by pass  2 Test12= 3.64D-12 1.67D-08 XBig12= 1.25D+02 1.62D+00.
      6 vectors produced by pass  3 Test12= 3.64D-12 1.67D-08 XBig12= 3.77D+01 7.45D-01.
      6 vectors produced by pass  4 Test12= 3.64D-12 1.67D-08 XBig12= 1.56D+01 4.42D-01.
      6 vectors produced by pass  5 Test12= 3.64D-12 1.67D-08 XBig12= 6.25D+00 2.94D-01.
      6 vectors produced by pass  6 Test12= 3.64D-12 1.67D-08 XBig12= 1.66D+00 1.66D-01.
      5 vectors produced by pass  7 Test12= 3.64D-12 1.67D-08 XBig12= 3.62D-01 7.20D-02.
      3 vectors produced by pass  8 Test12= 3.64D-12 1.67D-08 XBig12= 1.07D-01 4.56D-02.
      3 vectors produced by pass  9 Test12= 3.64D-12 1.67D-08 XBig12= 2.71D-02 2.19D-02.
      3 vectors produced by pass 10 Test12= 3.64D-12 1.67D-08 XBig12= 8.70D-03 1.39D-02.
      3 vectors produced by pass 11 Test12= 3.64D-12 1.67D-08 XBig12= 1.83D-03 6.97D-03.
      3 vectors produced by pass 12 Test12= 3.64D-12 1.67D-08 XBig12= 4.62D-04 3.70D-03.
      3 vectors produced by pass 13 Test12= 3.64D-12 1.67D-08 XBig12= 9.14D-05 1.25D-03.
      3 vectors produced by pass 14 Test12= 3.64D-12 1.67D-08 XBig12= 1.97D-05 5.54D-04.
      3 vectors produced by pass 15 Test12= 3.64D-12 1.67D-08 XBig12= 3.36D-06 9.58D-05.
      3 vectors produced by pass 16 Test12= 3.64D-12 1.67D-08 XBig12= 5.59D-07 6.86D-05.
      3 vectors produced by pass 17 Test12= 3.64D-12 1.67D-08 XBig12= 4.41D-08 1.84D-05.
      3 vectors produced by pass 18 Test12= 3.64D-12 1.67D-08 XBig12= 6.44D-09 5.97D-06.
      3 vectors produced by pass 19 Test12= 3.64D-12 1.67D-08 XBig12= 1.11D-09 3.38D-06.
      3 vectors produced by pass 20 Test12= 3.64D-12 1.67D-08 XBig12= 1.17D-10 1.10D-06.
      3 vectors produced by pass 21 Test12= 3.64D-12 1.67D-08 XBig12= 1.59D-11 3.45D-07.
      3 vectors produced by pass 22 Test12= 3.64D-12 1.67D-08 XBig12= 2.62D-12 1.18D-07.
      2 vectors produced by pass 23 Test12= 3.64D-12 1.67D-08 XBig12= 5.09D-13 3.86D-08.
 Inverted reduced A of dimension    94 with in-core refinement.
 Isotropic polarizability for W=    0.000000      310.13 Bohr**3.
 Calculating GIAO nuclear magnetic shielding tensors.
 SCF GIAO Magnetic shielding tensor (ppm):
  1  C    Isotropic =    55.0815   Anisotropy =   124.4720
   XX=   137.4271   YX=    -2.8664   ZX=    -6.9146
   XY=     3.5999   YY=    60.8599   ZY=   -30.7126
   XZ=   -12.9158   YZ=   -29.0897   ZZ=   -33.0424
   Eigenvalues:   -42.2491    69.4308   138.0629
  2  C    Isotropic =    38.3748   Anisotropy =   170.1463
   XX=   150.9213   YX=    -0.8505   ZX=   -11.7491
   XY=     6.8494   YY=    17.6899   ZY=   -46.4001
   XZ=   -10.7761   YZ=   -52.3492   ZZ=   -53.4867
   Eigenvalues:   -79.0887    42.4075   151.8057
  3  C    Isotropic =   129.0234   Anisotropy =    33.4924
   XX=   126.0655   YX=     9.3720   ZX=   -16.2612
   XY=    -0.0670   YY=   129.7796   ZY=    14.6435
   XZ=   -10.4795   YZ=    23.1694   ZZ=   131.2251
   Eigenvalues:   104.0376   131.6809   151.3516
  4  C    Isotropic =    86.1438   Anisotropy =    48.0475
   XX=   102.5570   YX=    15.7400   ZX=    18.6888
   XY=    13.7968   YY=    81.0214   ZY=    10.8515
   XZ=    17.2344   YZ=     1.0327   ZZ=    74.8528
   Eigenvalues:    65.8766    74.3793   118.1754
  5  C    Isotropic =   126.0802   Anisotropy =    30.6393
   XX=   137.3961   YX=    -2.7747   ZX=    13.1520
   XY=    -1.3953   YY=   125.6597   ZY=     3.8859
   XZ=    20.5081   YZ=     8.1503   ZZ=   115.1848
   Eigenvalues:   104.2756   127.4586   146.5064
  6  C    Isotropic =   147.1353   Anisotropy =    29.1297
   XX=   141.3706   YX=     3.3137   ZX=   -11.0918
   XY=     0.5321   YY=   141.0842   ZY=    10.6457
   XZ=    -6.5886   YZ=    12.0569   ZZ=   158.9510
   Eigenvalues:   131.7174   143.1333   166.5550
  7  C    Isotropic =    90.8438   Anisotropy =    39.6957
   XX=    69.1781   YX=    -3.9466   ZX=   -15.6063
   XY=     6.8845   YY=   113.8467   ZY=     8.4011
   XZ=     2.0574   YZ=    11.1657   ZZ=    89.5064
   Eigenvalues:    66.7179    88.5058   117.3076
  8  C    Isotropic =     1.1559   Anisotropy =   125.0866
   XX=   -51.2896   YX=   -37.2451   ZX=    -6.9144
   XY=   -29.7353   YY=     2.9946   ZY=    58.7122
   XZ=    10.1383   YZ=    40.0936   ZZ=    51.7626
   Eigenvalues:   -72.2692    -8.8102    84.5469
  9  C    Isotropic =    57.1467   Anisotropy =   104.8175
   XX=    26.3928   YX=   -24.3629   ZX=     3.1969
   XY=   -34.1846   YY=    54.9566   ZY=    52.8661
   XZ=     3.5545   YZ=    45.8466   ZZ=    90.0908
   Eigenvalues:    -3.4852    47.9003   127.0250
 10  C    Isotropic =   -19.6517   Anisotropy =   159.8627
   XX=   -94.8798   YX=    -8.0396   ZX=    26.5833
   XY=   -11.2463   YY=    -3.1935   ZY=    66.9483
   XZ=    14.3736   YZ=    62.9256   ZZ=    39.1181
   Eigenvalues:  -102.9807   -42.8980    86.9234
 11  C    Isotropic =   -35.5508   Anisotropy =   183.3676
   XX=  -126.2188   YX=    17.2222   ZX=   -34.1288
   XY=    14.9316   YY=   -45.8672   ZY=   -42.7930
   XZ=   -37.4232   YZ=   -41.3126   ZZ=    65.4336
   Eigenvalues:  -133.5707   -59.7759    86.6943
 12  O    Isotropic =  -326.1912   Anisotropy =  1036.6940
   XX=  -523.1158   YX=  -151.4547   ZX=  -199.4137
   XY=  -163.4861   YY=  -656.9763   ZY=  -340.8240
   XZ=  -232.6376   YZ=  -399.7263   ZZ=   201.5186
   Eigenvalues:  -924.0666  -419.4451   364.9382
 13  C    Isotropic =   128.4954   Anisotropy =    18.1515
   XX=   120.2986   YX=   -10.3417   ZX=   -11.1283
   XY=   -10.8341   YY=   131.1571   ZY=     0.1484
   XZ=    -7.0301   YZ=    -3.3562   ZZ=   134.0305
   Eigenvalues:   110.6238   134.2659   140.5964
 14  C    Isotropic =   147.2748   Anisotropy =    31.8663
   XX=   147.0602   YX=     0.7612   ZX=   -15.5689
   XY=    -4.1358   YY=   135.5621   ZY=    -8.4717
   XZ=   -10.9829   YZ=    -5.6531   ZZ=   159.2021
   Eigenvalues:   131.1543   142.1512   168.5190
 15  C    Isotropic =   162.6613   Anisotropy =    33.5856
   XX=   154.5203   YX=    -7.7183   ZX=    13.9778
   XY=    -7.8960   YY=   158.6103   ZY=    -9.5700
   XZ=     8.3425   YZ=    -9.1831   ZZ=   174.8532
   Eigenvalues:   147.8484   155.0838   185.0517
 16  O    Isotropic =  -233.1621   Anisotropy =   895.2938
   XX=  -380.6568   YX=   168.0303   ZX=   -51.8000
   XY=   126.4556   YY=  -272.6883   ZY=   474.7792
   XZ=   -47.8251   YZ=   538.6221   ZZ=   -46.1412
   Eigenvalues:  -738.6455  -324.5412   363.7004
 17  C    Isotropic =   124.4704   Anisotropy =    20.1708
   XX=   119.1524   YX=     9.5170   ZX=     1.7726
   XY=     3.3772   YY=   134.6642   ZY=    -2.4048
   XZ=   -17.6638   YZ=    -0.0178   ZZ=   119.5945
   Eigenvalues:   110.7805   124.7131   137.9176
 18  C    Isotropic =    82.7294   Anisotropy =    84.7826
   XX=    94.4104   YX=   -34.1623   ZX=    13.2662
   XY=   -38.2351   YY=    98.7611   ZY=   -14.0213
   XZ=    12.2258   YZ=   -25.6760   ZZ=    55.0167
   Eigenvalues:    47.2939    61.6432   139.2511
 19  O    Isotropic =    94.8392   Anisotropy =   111.6536
   XX=    72.9465   YX=    25.2731   ZX=   -33.9365
   XY=     6.0295   YY=    81.7253   ZY=    67.0483
   XZ=   -46.0968   YZ=    34.0147   ZZ=   129.8459
   Eigenvalues:    23.2326    92.0101   169.2749
 20  C    Isotropic =   149.1667   Anisotropy =    30.8350
   XX=   141.4854   YX=    17.5562   ZX=   -13.8948
   XY=    13.8823   YY=   148.4666   ZY=    -2.6212
   XZ=   -14.4976   YZ=     2.5507   ZZ=   157.5481
   Eigenvalues:   124.8681   152.9087   169.7233
 21  O    Isotropic =   242.2749   Anisotropy =    39.8184
   XX=   251.7309   YX=    -3.1609   ZX=   -11.8811
   XY=     5.1835   YY=   254.2209   ZY=    44.6128
   XZ=    23.9092   YZ=     6.3039   ZZ=   220.8728
   Eigenvalues:   206.5988   251.4053   268.8205
 22  C    Isotropic =   139.2826   Anisotropy =    32.9461
   XX=   139.9651   YX=     1.3150   ZX=    24.8883
   XY=     5.6878   YY=   148.3070   ZY=     7.1006
   XZ=    15.0428   YZ=    11.6268   ZZ=   129.5759
   Eigenvalues:   113.3069   143.2943   161.2467
 23  C    Isotropic =    97.6540   Anisotropy =    56.6432
   XX=    90.1624   YX=     9.6578   ZX=    18.1591
   XY=     7.7288   YY=   133.7442   ZY=    -0.8736
   XZ=    10.7872   YZ=    -5.3737   ZZ=    69.0553
   Eigenvalues:    61.0649    96.4810   135.4161
 24  O    Isotropic =   191.6458   Anisotropy =   103.4709
   XX=   201.8935   YX=    -1.9129   ZX=    75.0280
   XY=     1.7760   YY=   239.6717   ZY=    23.5179
   XZ=    76.3831   YZ=    26.5284   ZZ=   133.3722
   Eigenvalues:    81.7075   232.6035   260.6264
 25  C    Isotropic =    27.5107   Anisotropy =   184.9172
   XX=   -13.5955   YX=    53.1425   ZX=   -87.0316
   XY=    62.6567   YY=    79.7695   ZY=   -39.2769
   XZ=   -90.4362   YZ=   -30.5904   ZZ=    16.3580
   Eigenvalues:   -91.7551    23.4983   150.7888
 26  C    Isotropic =   158.9358   Anisotropy =    39.1198
   XX=   177.2482   YX=   -12.6875   ZX=     8.9263
   XY=   -13.4551   YY=   146.6735   ZY=    -4.5748
   XZ=     9.9595   YZ=    -0.3884   ZZ=   152.8857
   Eigenvalues:   141.7461   150.0456   185.0157
 27  C    Isotropic =    66.7918   Anisotropy =   125.8109
   XX=    32.0501   YX=    32.4663   ZX=   -70.9081
   XY=    34.4308   YY=   113.1800   ZY=   -18.4357
   XZ=   -76.3523   YZ=   -14.8039   ZZ=    55.1452
   Eigenvalues:   -32.4824    82.1920   150.6657
 28  C    Isotropic =   155.9366   Anisotropy =    39.9595
   XX=   145.2740   YX=    -0.8813   ZX=    -2.6453
   XY=    -3.2067   YY=   139.9879   ZY=    -1.1291
   XZ=     1.6262   YZ=    -0.8348   ZZ=   182.5479
   Eigenvalues:   139.2621   145.9714   182.5763
 29  C    Isotropic =   158.3367   Anisotropy =    36.7702
   XX=   149.2376   YX=    12.9900   ZX=     6.1519
   XY=    10.6307   YY=   173.6479   ZY=    13.0964
   XZ=     3.9786   YZ=     7.9517   ZZ=   152.1246
   Eigenvalues:   144.3127   147.8472   182.8502
 30  H    Isotropic =    29.7820   Anisotropy =     3.9654
   XX=    30.3887   YX=    -0.9628   ZX=     1.2300
   XY=    -1.2548   YY=    28.9919   ZY=    -2.4677
   XZ=     0.2477   YZ=    -1.7095   ZZ=    29.9654
   Eigenvalues:    27.2731    29.6473    32.4256
 31  H    Isotropic =    29.0865   Anisotropy =     5.4347
   XX=    32.2334   YX=    -0.9018   ZX=     0.4588
   XY=    -1.2081   YY=    28.7238   ZY=     2.0158
   XZ=    -1.5577   YZ=     1.7203   ZZ=    26.3023
   Eigenvalues:    25.2869    29.2630    32.7096
 32  C    Isotropic =   159.8363   Anisotropy =    38.4464
   XX=   143.7052   YX=    -3.6068   ZX=    -1.1301
   XY=    -4.9666   YY=   168.3974   ZY=    17.0443
   XZ=    -1.6343   YZ=    17.2893   ZZ=   167.4064
   Eigenvalues:   142.8160   151.2257   185.4673
 33  H    Isotropic =    26.1799   Anisotropy =     3.6849
   XX=    23.1391   YX=    -0.4014   ZX=    -0.1489
   XY=    -0.7113   YY=    28.4761   ZY=    -0.1500
   XZ=    -0.9330   YZ=     0.8715   ZZ=    26.9244
   Eigenvalues:    23.0169    26.8862    28.6365
 34  H    Isotropic =    29.8393   Anisotropy =     6.4461
   XX=    30.9576   YX=     4.1952   ZX=    -1.9907
   XY=     3.5107   YY=    28.2473   ZY=     0.4403
   XZ=    -1.4447   YZ=    -0.0358   ZZ=    30.3132
   Eigenvalues:    25.2430    30.1383    34.1368
 35  H    Isotropic =    28.5058   Anisotropy =     7.4314
   XX=    26.4696   YX=    -2.9814   ZX=     0.7735
   XY=    -3.5912   YY=    29.1642   ZY=    -2.7905
   XZ=     0.0420   YZ=    -3.0785   ZZ=    29.8836
   Eigenvalues:    23.9291    28.1281    33.4600
 36  H    Isotropic =    28.9595   Anisotropy =     5.8319
   XX=    32.8468   YX=    -0.9104   ZX=     0.2904
   XY=     0.9848   YY=    26.5626   ZY=    -0.8272
   XZ=    -0.3698   YZ=    -1.3423   ZZ=    27.4690
   Eigenvalues:    25.8402    28.1908    32.8474
 37  H    Isotropic =    30.1014   Anisotropy =     5.4527
   XX=    32.5034   YX=     2.6134   ZX=     1.5535
   XY=     2.1217   YY=    28.1214   ZY=    -0.1551
   XZ=     0.3643   YZ=     0.2365   ZZ=    29.6793
   Eigenvalues:    27.0388    29.5287    33.7365
 38  H    Isotropic =    30.5740   Anisotropy =     7.6710
   XX=    30.7465   YX=    -5.2452   ZX=    -0.8449
   XY=    -4.8372   YY=    30.3327   ZY=     0.0463
   XZ=    -1.3331   YZ=    -0.2475   ZZ=    30.6430
   Eigenvalues:    25.3634    30.6706    35.6880
 39  H    Isotropic =    31.2141   Anisotropy =     9.3409
   XX=    30.2835   YX=    -4.3602   ZX=     0.4027
   XY=    -4.2766   YY=    34.2545   ZY=    -1.5068
   XZ=     1.0486   YZ=    -2.0018   ZZ=    29.1044
   Eigenvalues:    27.4300    28.7709    37.4414
 40  H    Isotropic =    30.2146   Anisotropy =     7.9820
   XX=    30.9031   YX=    -0.4660   ZX=    -1.2209
   XY=     0.5558   YY=    26.5968   ZY=    -3.2062
   XZ=    -2.6286   YZ=    -4.3018   ZZ=    33.1441
   Eigenvalues:    24.7910    30.3169    35.5360
 41  H    Isotropic =    30.7636   Anisotropy =     7.2253
   XX=    31.7869   YX=     2.0458   ZX=     3.1588
   XY=     1.3217   YY=    29.7697   ZY=     0.3246
   XZ=     4.4015   YZ=     0.9958   ZZ=    30.7342
   Eigenvalues:    27.2705    29.4398    35.5805
 42  H    Isotropic =    29.9493   Anisotropy =     8.5247
   XX=    26.4434   YX=    -0.8953   ZX=    -2.8242
   XY=    -2.0304   YY=    34.5572   ZY=     1.4374
   XZ=    -3.1132   YZ=     2.0479   ZZ=    28.8474
   Eigenvalues:    24.4365    29.7791    35.6325
 43  H    Isotropic =    30.7330   Anisotropy =     5.1463
   XX=    31.4448   YX=     4.2837   ZX=    -0.4015
   XY=     3.0513   YY=    28.5116   ZY=     1.4030
   XZ=    -0.6467   YZ=     2.2771   ZZ=    32.2424
   Eigenvalues:    25.5329    32.5021    34.1638
 44  H    Isotropic =    28.9966   Anisotropy =    16.5902
   XX=    37.0521   YX=     6.8379   ZX=     1.2765
   XY=     7.2604   YY=    22.1275   ZY=    -0.5723
   XZ=     1.9626   YZ=     0.9303   ZZ=    27.8103
   Eigenvalues:    19.3023    27.6308    40.0568
 45  H    Isotropic =    30.1024   Anisotropy =     8.4991
   XX=    26.4038   YX=     0.3540   ZX=     1.0454
   XY=     0.0184   YY=    35.4165   ZY=    -2.2081
   XZ=     2.1484   YZ=    -0.9805   ZZ=    28.4871
   Eigenvalues:    25.4494    29.0894    35.7685
 46  H    Isotropic =    29.3959   Anisotropy =     5.1983
   XX=    28.2600   YX=    -0.5669   ZX=    -0.3442
   XY=     0.4576   YY=    29.9942   ZY=     3.1984
   XZ=    -0.5250   YZ=     2.5447   ZZ=    29.9337
   Eigenvalues:    27.0317    28.2946    32.8615
 47  H    Isotropic =    27.2027   Anisotropy =     7.3159
   XX=    29.2747   YX=     3.3115   ZX=    -0.3371
   XY=     4.2535   YY=    26.1508   ZY=    -2.8003
   XZ=    -0.4301   YZ=    -0.5675   ZZ=    26.1825
   Eigenvalues:    23.1302    26.3979    32.0799
 48  H    Isotropic =    30.1058   Anisotropy =     8.5113
   XX=    34.8953   YX=     0.6556   ZX=    -2.6345
   XY=     1.4947   YY=    26.3122   ZY=     0.1773
   XZ=    -1.8813   YZ=    -0.1309   ZZ=    29.1098
   Eigenvalues:    26.1423    28.3951    35.7800
 49  H    Isotropic =    29.5765   Anisotropy =     4.6501
   XX=    30.1984   YX=    -0.5642   ZX=     2.9950
   XY=    -0.1253   YY=    32.1154   ZY=    -0.1665
   XZ=     3.5385   YZ=    -0.9278   ZZ=    26.4157
   Eigenvalues:    24.5203    31.5327    32.6766
 50  H    Isotropic =    29.9916   Anisotropy =     8.2943
   XX=    31.2907   YX=     0.7744   ZX=     4.7029
   XY=    -0.5466   YY=    27.2405   ZY=     1.1298
   XZ=     3.1386   YZ=     2.4921   ZZ=    31.4436
   Eigenvalues:    26.0371    28.4166    35.5211
 51  H    Isotropic =    26.7697   Anisotropy =     8.2858
   XX=    24.5127   YX=     1.1668   ZX=     1.0132
   XY=    -0.1015   YY=    28.9017   ZY=     3.9232
   XZ=    -1.0925   YZ=     4.5946   ZZ=    26.8946
   Eigenvalues:    23.4029    24.6126    32.2936
 52  H    Isotropic =    26.7289   Anisotropy =     5.0652
   XX=    25.7332   YX=    -0.9504   ZX=    -1.3333
   XY=     0.5228   YY=    27.9601   ZY=     3.4627
   XZ=     0.2781   YZ=     1.9909   ZZ=    26.4933
   Eigenvalues:    24.3412    25.7397    30.1057
 53  H    Isotropic =    29.2908   Anisotropy =     4.9275
   XX=    25.6713   YX=     3.9584   ZX=    -0.9684
   XY=     4.0683   YY=    30.2221   ZY=    -0.0936
   XZ=    -0.0851   YZ=     0.9215   ZZ=    31.9791
   Eigenvalues:    23.2826    32.0141    32.5758
 54  H    Isotropic =    30.5917   Anisotropy =     8.4277
   XX=    31.8786   YX=     1.3639   ZX=    -3.2489
   XY=     0.8060   YY=    27.7720   ZY=    -0.5919
   XZ=    -4.5747   YZ=    -1.6986   ZZ=    32.1246
   Eigenvalues:    27.4766    28.0883    36.2102
 55  H    Isotropic =    30.9338   Anisotropy =     9.7037
   XX=    28.6533   YX=    -1.6880   ZX=     1.9529
   XY=    -1.6052   YY=    31.1309   ZY=    -3.7613
   XZ=     2.3626   YZ=    -5.0132   ZZ=    33.0173
   Eigenvalues:    27.5656    27.8329    37.4029
 56  H    Isotropic =    30.8932   Anisotropy =     9.6431
   XX=    28.2456   YX=    -1.0818   ZX=    -0.3484
   XY=    -1.4732   YY=    37.0272   ZY=    -1.3852
   XZ=     0.0492   YZ=    -0.7921   ZZ=    27.4068
   Eigenvalues:    27.1910    28.1667    37.3220
 57  H    Isotropic =    30.3931   Anisotropy =     8.7432
   XX=    33.2137   YX=     3.4524   ZX=    -2.2544
   XY=     4.2906   YY=    30.3650   ZY=    -0.7833
   XZ=    -1.1528   YZ=    -0.0062   ZZ=    27.6007
   Eigenvalues:    26.8133    28.1443    36.2219
 58  H    Isotropic =    30.4392   Anisotropy =     6.2712
   XX=    28.6744   YX=     3.5006   ZX=     0.8934
   XY=     3.7042   YY=    29.9948   ZY=     2.2942
   XZ=     0.3318   YZ=     1.2816   ZZ=    32.6485
   Eigenvalues:    25.6036    31.0941    34.6201
 59  H    Isotropic =    30.2625   Anisotropy =     8.5095
   XX=    26.0102   YX=    -0.4331   ZX=    -0.6960
   XY=    -0.3670   YY=    29.0850   ZY=     2.2472
   XZ=    -0.6737   YZ=     0.0116   ZZ=    35.6924
   Eigenvalues:    25.9282    28.9239    35.9355
 60  H    Isotropic =    30.1097   Anisotropy =     6.4411
   XX=    28.4089   YX=     3.8976   ZX=    -0.9224
   XY=     3.6510   YY=    31.0999   ZY=     1.7815
   XZ=    -0.7792   YZ=     2.8744   ZZ=    30.8204
   Eigenvalues:    25.0050    30.9204    34.4038
 61  H    Isotropic =    30.4104   Anisotropy =     8.9131
   XX=    30.7710   YX=    -4.5549   ZX=    -1.2773
   XY=    -4.4108   YY=    31.0844   ZY=     1.4007
   XZ=    -1.9800   YZ=     2.5685   ZZ=    29.3757
   Eigenvalues:    26.4228    28.4558    36.3525
 62  C    Isotropic =   168.7286   Anisotropy =    22.6483
   XX=   166.7007   YX=    -0.7258   ZX=     6.8747
   XY=     0.7464   YY=   159.1513   ZY=    -8.9495
   XZ=     3.1106   YZ=    -5.2403   ZZ=   180.3339
   Eigenvalues:   156.7585   165.5998   183.8275
 63  H    Isotropic =    31.0259   Anisotropy =     9.0149
   XX=    30.8326   YX=    -5.1047   ZX=    -1.1468
   XY=    -5.0874   YY=    32.7499   ZY=    -1.3112
   XZ=    -0.4270   YZ=    -1.7020   ZZ=    29.4952
   Eigenvalues:    25.9125    30.1295    37.0358
 64  H    Isotropic =    31.1510   Anisotropy =     5.8280
   XX=    31.9227   YX=     1.9307   ZX=     1.2297
   XY=     1.1787   YY=    29.9233   ZY=     1.8040
   XZ=     2.2360   YZ=     3.0045   ZZ=    31.6070
   Eigenvalues:    28.1915    30.2251    35.0363
 65  H    Isotropic =    31.0259   Anisotropy =    10.7081
   XX=    31.1680   YX=    -0.4449   ZX=    -3.8472
   XY=    -0.0080   YY=    26.6912   ZY=    -1.5599
   XZ=    -5.0492   YZ=    -1.0550   ZZ=    35.2185
   Eigenvalues:    26.2235    28.6896    38.1646
 Dipole-magnetic dipole polarizability for W=    0.000000:
                 1             2             3 
      1   0.248491D+02  0.684268D+02  0.124831D+01
      2  -0.584613D+01 -0.713134D+02 -0.255146D+02
      3  -0.116329D+02  0.507947D+02  0.514718D+02
 DQ contribution to OR G for W=    0.000000:
                 1             2             3 
      1   0.345128D+02  0.417253D+02  0.189912D+02
      2   0.854504D+02 -0.110816D+03  0.165869D+02
      3  -0.457122D+02  0.512548D+02  0.763031D+02
 Optical Rotation G' tensor for W=    0.000000:
                 1             2             3 
      1  -0.129260D+01  0.251799D+00 -0.743993D+00
      2   0.251799D+00  0.104565D+02  0.216017D+01
      3  -0.743993D+00  0.216017D+01 -0.415640D+01
 OR G Eigenvalues:    -4.6470    -1.1164    10.7708  Iso=    -1.6692
 Eigenvectors:
   (1)   0.224475  -0.141638   0.964132
   (2)   0.974408   0.020582  -0.223844
   (3)   0.011861   0.989705   0.142633
 w=    0.000000 a.u., Optical Rotation Beta=     -1.6692 au.
 Molar Mass =    426.5516 grams/mole, [Alpha]D (static) =     -151.25 deg.
 End of Minotr Frequency-dependent properties file   721 does not exist.
 End of Minotr Frequency-dependent properties file   722 does not exist.

 **********************************************************************

            Population analysis using the SCF density.

 **********************************************************************

 Orbital symmetries:
       Occupied  (A) (A) (A) (A) (A) (A) (A) (A) (A) (A) (A) (A)
                 (A) (A) (A) (A) (A) (A) (A) (A) (A) (A) (A) (A)
                 (A) (A) (A) (A) (A) (A) (A) (A) (A) (A) (A) (A)
                 (A) (A) (A) (A) (A) (A) (A) (A) (A) (A) (A) (A)
                 (A) (A) (A) (A) (A) (A) (A) (A) (A) (A) (A) (A)
                 (A) (A) (A) (A) (A) (A) (A) (A) (A) (A) (A) (A)
                 (A) (A) (A) (A) (A) (A) (A) (A) (A) (A) (A) (A)
                 (A) (A) (A) (A) (A) (A) (A) (A) (A) (A) (A) (A)
                 (A) (A) (A) (A) (A) (A) (A) (A) (A) (A) (A) (A)
                 (A) (A) (A) (A) (A) (A) (A)
       Virtual   (A) (A) (A) (A) (A) (A) (A) (A) (A) (A) (A) (A)
                 (A) (A) (A) (A) (A) (A) (A) (A) (A) (A) (A) (A)
                 (A) (A) (A) (A) (A) (A) (A) (A) (A) (A) (A) (A)
                 (A) (A) (A) (A) (A) (A) (A) (A) (A) (A) (A) (A)
                 (A) (A) (A) (A) (A) (A) (A) (A) (A) (A) (A) (A)
                 (A) (A) (A) (A) (A) (A) (A) (A) (A) (A) (A) (A)
                 (A) (A) (A) (A) (A) (A) (A) (A) (A) (A) (A) (A)
                 (A) (A) (A) (A) (A) (A) (A) (A) (A) (A) (A) (A)
                 (A) (A) (A) (A) (A) (A) (A) (A) (A) (A) (A) (A)
                 (A) (A) (A) (A) (A) (A) (A) (A) (A) (A) (A) (A)
                 (A) (A) (A) (A) (A) (A) (A) (A) (A) (A) (A) (A)
                 (A) (A) (A) (A) (A) (A) (A) (A) (A) (A) (A) (A)
                 (A) (A) (A) (A) (A) (A) (A) (A) (A) (A) (A) (A)
                 (A) (A) (A) (A) (A) (A) (A) (A) (A) (A) (A) (A)
                 (A) (A) (A) (A) (A) (A) (A) (A) (A) (A) (A) (A)
                 (A) (A) (A) (A) (A) (A) (A) (A) (A) (A) (A) (A)
                 (A) (A) (A) (A) (A) (A) (A) (A) (A) (A) (A) (A)
                 (A) (A) (A) (A) (A) (A) (A) (A) (A) (A) (A) (A)
                 (A) (A) (A) (A) (A) (A) (A) (A) (A) (A) (A) (A)
                 (A) (A) (A) (A) (A) (A) (A) (A) (A) (A) (A) (A)
                 (A) (A) (A) (A) (A) (A) (A) (A) (A) (A) (A) (A)
                 (A) (A) (A) (A) (A) (A) (A) (A) (A) (A) (A) (A)
                 (A) (A) (A) (A) (A) (A) (A) (A) (A) (A) (A) (A)
                 (A) (A) (A) (A) (A) (A) (A) (A) (A) (A) (A) (A)
                 (A) (A) (A) (A) (A) (A) (A) (A) (A) (A) (A) (A)
                 (A) (A) (A) (A) (A) (A) (A) (A) (A) (A) (A) (A)
                 (A) (A) (A) (A) (A) (A) (A) (A) (A) (A) (A) (A)
                 (A) (A) (A) (A) (A) (A) (A) (A) (A) (A) (A) (A)
                 (A) (A) (A) (A) (A) (A) (A) (A) (A) (A) (A) (A)
                 (A) (A) (A) (A) (A) (A) (A) (A) (A) (A) (A) (A)
                 (A) (A) (A) (A) (A) (A) (A) (A) (A) (A) (A) (A)
                 (A) (A) (A) (A) (A) (A) (A) (A) (A) (A) (A) (A)
                 (A) (A) (A) (A) (A) (A) (A) (A) (A) (A) (A) (A)
                 (A) (A) (A) (A) (A) (A) (A) (A) (A) (A) (A) (A)
                 (A) (A) (A) (A) (A) (A) (A) (A) (A) (A) (A) (A)
                 (A) (A) (A) (A) (A) (A) (A) (A) (A) (A) (A) (A)
                 (A) (A) (A) (A) (A) (A) (A) (A) (A) (A) (A) (A)
                 (A) (A) (A) (A) (A) (A) (A) (A) (A) (A) (A) (A)
                 (A) (A) (A) (A) (A) (A) (A) (A) (A) (A) (A) (A)
                 (A) (A) (A) (A) (A) (A) (A) (A) (A) (A) (A) (A)
                 (A) (A) (A) (A) (A) (A) (A) (A) (A) (A) (A) (A)
                 (A) (A) (A) (A) (A) (A) (A) (A) (A) (A) (A) (A)
                 (A) (A) (A) (A) (A) (A) (A) (A) (A) (A) (A) (A)
                 (A) (A) (A) (A) (A) (A) (A) (A) (A) (A) (A) (A)
                 (A) (A) (A) (A) (A) (A) (A) (A) (A) (A) (A) (A)
                 (A) (A) (A) (A) (A) (A) (A) (A) (A) (A) (A) (A)
                 (A) (A) (A) (A) (A) (A) (A) (A) (A) (A) (A) (A)
                 (A) (A) (A) (A) (A) (A) (A) (A) (A) (A) (A) (A)
                 (A) (A) (A) (A) (A) (A) (A) (A) (A) (A) (A) (A)
                 (A) (A) (A) (A) (A) (A) (A) (A) (A) (A) (A) (A)
                 (A) (A) (A) (A) (A) (A) (A) (A) (A) (A) (A) (A)
                 (A) (A) (A) (A) (A) (A) (A) (A) (A) (A) (A) (A)
                 (A) (A) (A) (A) (A) (A) (A) (A) (A) (A) (A) (A)
                 (A) (A) (A) (A) (A) (A) (A) (A) (A) (A) (A) (A)
                 (A) (A) (A) (A) (A) (A) (A) (A) (A) (A) (A) (A)
                 (A) (A) (A) (A) (A) (A) (A) (A) (A) (A) (A) (A)
                 (A) (A) (A) (A) (A) (A) (A) (A) (A) (A) (A) (A)
                 (A) (A) (A) (A) (A) (A) (A) (A) (A) (A) (A) (A)
                 (A) (A) (A) (A) (A) (A) (A) (A) (A) (A) (A) (A)
                 (A) (A) (A) (A) (A) (A) (A) (A) (A) (A) (A) (A)
                 (A) (A) (A) (A) (A) (A) (A) (A) (A) (A) (A) (A)
                 (A) (A) (A) (A) (A) (A) (A) (A) (A) (A) (A) (A)
                 (A) (A) (A) (A) (A) (A) (A) (A) (A) (A) (A) (A)
                 (A) (A) (A) (A) (A) (A) (A) (A) (A) (A) (A) (A)
                 (A) (A) (A) (A) (A) (A) (A) (A) (A) (A) (A) (A)
                 (A) (A) (A) (A) (A) (A) (A) (A) (A) (A) (A) (A)
                 (A) (A) (A) (A) (A) (A) (A) (A) (A) (A) (A) (A)
                 (A) (A) (A) (A) (A) (A) (A) (A) (A) (A) (A) (A)
                 (A) (A) (A) (A) (A) (A) (A) (A) (A) (A) (A) (A)
                 (A) (A) (A) (A) (A) (A) (A) (A) (A) (A) (A) (A)
                 (A) (A) (A) (A) (A) (A) (A) (A) (A) (A) (A) (A)
                 (A) (A) (A) (A) (A) (A) (A) (A) (A) (A) (A) (A)
                 (A) (A) (A) (A) (A) (A) (A) (A) (A) (A) (A) (A)
                 (A) (A) (A) (A) (A) (A) (A) (A) (A) (A) (A) (A)
                 (A) (A) (A) (A) (A) (A) (A) (A) (A) (A) (A) (A)
                 (A) (A) (A) (A) (A) (A) (A) (A) (A) (A) (A) (A)
                 (A) (A) (A) (A) (A) (A) (A) (A) (A) (A) (A) (A)
                 (A) (A) (A) (A) (A) (A) (A) (A) (A) (A) (A) (A)
                 (A) (A) (A) (A) (A) (A) (A) (A) (A) (A) (A) (A)
                 (A) (A)
 The electronic state is 1-A.
 Alpha  occ. eigenvalues --  -19.17636 -19.14617 -19.13959 -19.10646 -19.10558
 Alpha  occ. eigenvalues --  -10.26485 -10.26271 -10.25776 -10.25527 -10.25170
 Alpha  occ. eigenvalues --  -10.25083 -10.24183 -10.20557 -10.19783 -10.19654
 Alpha  occ. eigenvalues --  -10.19384 -10.18646 -10.18451 -10.18282 -10.18278
 Alpha  occ. eigenvalues --  -10.17581 -10.17566 -10.17521 -10.17515 -10.17142
 Alpha  occ. eigenvalues --  -10.16925 -10.16838 -10.16772 -10.15940 -10.14962
 Alpha  occ. eigenvalues --  -10.14488  -1.10135  -1.06625  -1.04355  -1.03711
 Alpha  occ. eigenvalues --   -1.03430  -0.87578  -0.84488  -0.83243  -0.82286
 Alpha  occ. eigenvalues --   -0.81079  -0.79962  -0.77568  -0.75035  -0.73963
 Alpha  occ. eigenvalues --   -0.72518  -0.72079  -0.70613  -0.70206  -0.68604
 Alpha  occ. eigenvalues --   -0.66008  -0.64573  -0.64024  -0.62303  -0.61414
 Alpha  occ. eigenvalues --   -0.60369  -0.59667  -0.57860  -0.55598  -0.54443
 Alpha  occ. eigenvalues --   -0.53541  -0.53134  -0.51548  -0.51143  -0.50130
 Alpha  occ. eigenvalues --   -0.49277  -0.48769  -0.47549  -0.46990  -0.46664
 Alpha  occ. eigenvalues --   -0.46144  -0.45344  -0.44716  -0.44309  -0.44103
 Alpha  occ. eigenvalues --   -0.43469  -0.42941  -0.42695  -0.42339  -0.42066
 Alpha  occ. eigenvalues --   -0.41793  -0.41264  -0.41159  -0.40928  -0.40620
 Alpha  occ. eigenvalues --   -0.39985  -0.39851  -0.39180  -0.38935  -0.38817
 Alpha  occ. eigenvalues --   -0.38384  -0.38284  -0.38116  -0.37745  -0.37529
 Alpha  occ. eigenvalues --   -0.37205  -0.35987  -0.35932  -0.35430  -0.35149
 Alpha  occ. eigenvalues --   -0.34601  -0.34422  -0.33821  -0.33477  -0.32966
 Alpha  occ. eigenvalues --   -0.32442  -0.32109  -0.31519  -0.29305  -0.27710
 Alpha  occ. eigenvalues --   -0.27398  -0.26014  -0.25172  -0.24468  -0.24035
 Alpha virt. eigenvalues --   -0.05902  -0.02671  -0.02133  -0.01814  -0.00824
 Alpha virt. eigenvalues --   -0.00495  -0.00062   0.00376   0.00799   0.01179
 Alpha virt. eigenvalues --    0.01216   0.01363   0.01750   0.02492   0.02762
 Alpha virt. eigenvalues --    0.02968   0.02994   0.03442   0.03563   0.03955
 Alpha virt. eigenvalues --    0.04253   0.04477   0.04758   0.04918   0.05269
 Alpha virt. eigenvalues --    0.05777   0.05863   0.06204   0.06403   0.06489
 Alpha virt. eigenvalues --    0.06762   0.07235   0.07371   0.07548   0.07757
 Alpha virt. eigenvalues --    0.07901   0.08030   0.08366   0.08598   0.08867
 Alpha virt. eigenvalues --    0.09063   0.09221   0.09419   0.09566   0.09760
 Alpha virt. eigenvalues --    0.09987   0.10258   0.10559   0.10677   0.10863
 Alpha virt. eigenvalues --    0.11033   0.11433   0.11552   0.11688   0.11903
 Alpha virt. eigenvalues --    0.11995   0.12131   0.12299   0.12593   0.12625
 Alpha virt. eigenvalues --    0.12953   0.13012   0.13246   0.13478   0.13644
 Alpha virt. eigenvalues --    0.13763   0.13850   0.14050   0.14146   0.14243
 Alpha virt. eigenvalues --    0.14399   0.14657   0.14799   0.14916   0.15148
 Alpha virt. eigenvalues --    0.15240   0.15480   0.15539   0.15681   0.15862
 Alpha virt. eigenvalues --    0.16025   0.16101   0.16416   0.16555   0.16704
 Alpha virt. eigenvalues --    0.16843   0.16930   0.17220   0.17402   0.17557
 Alpha virt. eigenvalues --    0.17634   0.17745   0.18037   0.18133   0.18353
 Alpha virt. eigenvalues --    0.18401   0.18691   0.18771   0.19107   0.19372
 Alpha virt. eigenvalues --    0.19499   0.19530   0.19766   0.19873   0.20026
 Alpha virt. eigenvalues --    0.20054   0.20509   0.20727   0.21007   0.21162
 Alpha virt. eigenvalues --    0.21406   0.21632   0.21802   0.21992   0.22186
 Alpha virt. eigenvalues --    0.22201   0.22466   0.22612   0.23130   0.23168
 Alpha virt. eigenvalues --    0.23366   0.23532   0.23780   0.24023   0.24331
 Alpha virt. eigenvalues --    0.24507   0.24743   0.24988   0.25230   0.25681
 Alpha virt. eigenvalues --    0.25822   0.25861   0.26154   0.26243   0.26410
 Alpha virt. eigenvalues --    0.26725   0.27158   0.27315   0.27425   0.27590
 Alpha virt. eigenvalues --    0.27827   0.27987   0.28159   0.28489   0.28746
 Alpha virt. eigenvalues --    0.28950   0.29311   0.29472   0.29597   0.29840
 Alpha virt. eigenvalues --    0.30115   0.30404   0.30998   0.31086   0.31298
 Alpha virt. eigenvalues --    0.31484   0.31673   0.32000   0.32101   0.32439
 Alpha virt. eigenvalues --    0.32654   0.32948   0.33196   0.33235   0.33421
 Alpha virt. eigenvalues --    0.33574   0.33765   0.33885   0.34352   0.34519
 Alpha virt. eigenvalues --    0.34840   0.34906   0.35207   0.35536   0.35865
 Alpha virt. eigenvalues --    0.36072   0.36513   0.36737   0.36939   0.37041
 Alpha virt. eigenvalues --    0.37312   0.37494   0.37831   0.37925   0.38514
 Alpha virt. eigenvalues --    0.38652   0.39255   0.39406   0.39599   0.39843
 Alpha virt. eigenvalues --    0.40270   0.40483   0.40804   0.40892   0.41448
 Alpha virt. eigenvalues --    0.41811   0.42127   0.42710   0.42755   0.43036
 Alpha virt. eigenvalues --    0.43331   0.43451   0.43633   0.44039   0.44618
 Alpha virt. eigenvalues --    0.45009   0.45230   0.45525   0.45843   0.46073
 Alpha virt. eigenvalues --    0.46717   0.47277   0.47808   0.48026   0.48255
 Alpha virt. eigenvalues --    0.48479   0.48832   0.49456   0.49694   0.49958
 Alpha virt. eigenvalues --    0.50475   0.50672   0.51025   0.51401   0.51969
 Alpha virt. eigenvalues --    0.52253   0.52297   0.52918   0.53357   0.53783
 Alpha virt. eigenvalues --    0.53901   0.54137   0.54942   0.55081   0.55455
 Alpha virt. eigenvalues --    0.55534   0.56158   0.56237   0.56905   0.57046
 Alpha virt. eigenvalues --    0.57455   0.57627   0.58037   0.58112   0.58621
 Alpha virt. eigenvalues --    0.58735   0.59041   0.59491   0.59814   0.60158
 Alpha virt. eigenvalues --    0.60596   0.61040   0.61100   0.61473   0.61631
 Alpha virt. eigenvalues --    0.61795   0.62299   0.62500   0.62787   0.63141
 Alpha virt. eigenvalues --    0.63630   0.63865   0.64201   0.64579   0.64782
 Alpha virt. eigenvalues --    0.65228   0.65674   0.65919   0.66385   0.66641
 Alpha virt. eigenvalues --    0.67006   0.67255   0.67821   0.67890   0.68168
 Alpha virt. eigenvalues --    0.68232   0.68921   0.69229   0.69479   0.69874
 Alpha virt. eigenvalues --    0.70065   0.70272   0.70499   0.70964   0.71529
 Alpha virt. eigenvalues --    0.71625   0.71820   0.71997   0.72217   0.72727
 Alpha virt. eigenvalues --    0.72800   0.73238   0.73449   0.73773   0.74234
 Alpha virt. eigenvalues --    0.74324   0.74711   0.74854   0.75275   0.75711
 Alpha virt. eigenvalues --    0.76104   0.76303   0.76352   0.76933   0.77291
 Alpha virt. eigenvalues --    0.77827   0.78090   0.78330   0.78592   0.78669
 Alpha virt. eigenvalues --    0.78835   0.79354   0.79511   0.80043   0.80546
 Alpha virt. eigenvalues --    0.80785   0.81233   0.81594   0.81731   0.81819
 Alpha virt. eigenvalues --    0.82203   0.82730   0.82863   0.83426   0.83675
 Alpha virt. eigenvalues --    0.84244   0.84749   0.85397   0.86035   0.86306
 Alpha virt. eigenvalues --    0.87156   0.87479   0.87759   0.88421   0.88546
 Alpha virt. eigenvalues --    0.89019   0.89414   0.90812   0.90829   0.91402
 Alpha virt. eigenvalues --    0.91569   0.92365   0.92771   0.93257   0.93634
 Alpha virt. eigenvalues --    0.94307   0.94746   0.95399   0.95978   0.96184
 Alpha virt. eigenvalues --    0.96990   0.97074   0.97506   0.98826   0.98871
 Alpha virt. eigenvalues --    0.99329   0.99970   1.00288   1.00942   1.01265
 Alpha virt. eigenvalues --    1.01792   1.02167   1.03380   1.03990   1.04380
 Alpha virt. eigenvalues --    1.05248   1.05605   1.05747   1.06691   1.06981
 Alpha virt. eigenvalues --    1.07382   1.07984   1.08495   1.08926   1.09720
 Alpha virt. eigenvalues --    1.10318   1.10352   1.10879   1.11605   1.11776
 Alpha virt. eigenvalues --    1.12478   1.13134   1.13318   1.13994   1.14235
 Alpha virt. eigenvalues --    1.15509   1.15989   1.16087   1.16506   1.17077
 Alpha virt. eigenvalues --    1.17638   1.18392   1.18601   1.19136   1.19364
 Alpha virt. eigenvalues --    1.20033   1.20452   1.20966   1.21478   1.21967
 Alpha virt. eigenvalues --    1.22188   1.22647   1.22887   1.23390   1.24011
 Alpha virt. eigenvalues --    1.24304   1.24787   1.25269   1.25949   1.27179
 Alpha virt. eigenvalues --    1.27293   1.27453   1.27961   1.28229   1.28864
 Alpha virt. eigenvalues --    1.29129   1.29820   1.30274   1.30673   1.31133
 Alpha virt. eigenvalues --    1.31669   1.31906   1.32368   1.32680   1.33069
 Alpha virt. eigenvalues --    1.33561   1.33963   1.34327   1.34401   1.35262
 Alpha virt. eigenvalues --    1.35303   1.35992   1.36098   1.36974   1.37108
 Alpha virt. eigenvalues --    1.37372   1.38058   1.38702   1.38838   1.39415
 Alpha virt. eigenvalues --    1.39777   1.40140   1.40450   1.41106   1.41776
 Alpha virt. eigenvalues --    1.42005   1.42156   1.42767   1.43983   1.44133
 Alpha virt. eigenvalues --    1.44661   1.45089   1.45579   1.46136   1.46447
 Alpha virt. eigenvalues --    1.46580   1.47547   1.47784   1.47876   1.48623
 Alpha virt. eigenvalues --    1.49081   1.49399   1.50239   1.50585   1.51103
 Alpha virt. eigenvalues --    1.51212   1.51588   1.52181   1.52808   1.53186
 Alpha virt. eigenvalues --    1.53702   1.54237   1.54882   1.55222   1.55779
 Alpha virt. eigenvalues --    1.56353   1.56537   1.57279   1.58267   1.59701
 Alpha virt. eigenvalues --    1.60365   1.60976   1.61291   1.61697   1.62007
 Alpha virt. eigenvalues --    1.63089   1.64276   1.65245   1.66097   1.66592
 Alpha virt. eigenvalues --    1.66773   1.68231   1.68625   1.70255   1.70964
 Alpha virt. eigenvalues --    1.72556   1.72723   1.73547   1.73631   1.74205
 Alpha virt. eigenvalues --    1.74684   1.75149   1.75551   1.76795   1.76935
 Alpha virt. eigenvalues --    1.77985   1.78148   1.78869   1.79488   1.79618
 Alpha virt. eigenvalues --    1.81592   1.82153   1.82656   1.83286   1.83431
 Alpha virt. eigenvalues --    1.84304   1.85140   1.85557   1.85921   1.86520
 Alpha virt. eigenvalues --    1.87022   1.87355   1.88619   1.89581   1.90647
 Alpha virt. eigenvalues --    1.91411   1.91896   1.92376   1.92833   1.93729
 Alpha virt. eigenvalues --    1.94160   1.94564   1.95314   1.96433   1.96828
 Alpha virt. eigenvalues --    1.97350   1.98770   1.99535   1.99739   1.99994
 Alpha virt. eigenvalues --    2.00794   2.01440   2.01860   2.03273   2.03695
 Alpha virt. eigenvalues --    2.04693   2.05716   2.06336   2.07663   2.09081
 Alpha virt. eigenvalues --    2.09482   2.09980   2.11665   2.12101   2.13485
 Alpha virt. eigenvalues --    2.13890   2.14585   2.17503   2.17988   2.18392
 Alpha virt. eigenvalues --    2.18757   2.21410   2.21862   2.22392   2.22708
 Alpha virt. eigenvalues --    2.23388   2.24464   2.25232   2.25439   2.25474
 Alpha virt. eigenvalues --    2.25865   2.26531   2.27481   2.27843   2.28725
 Alpha virt. eigenvalues --    2.29776   2.30137   2.31186   2.32134   2.32350
 Alpha virt. eigenvalues --    2.32533   2.33562   2.34339   2.34565   2.35757
 Alpha virt. eigenvalues --    2.36152   2.36672   2.36725   2.37301   2.37674
 Alpha virt. eigenvalues --    2.38217   2.38314   2.38796   2.39387   2.39877
 Alpha virt. eigenvalues --    2.39893   2.40814   2.41281   2.41500   2.42655
 Alpha virt. eigenvalues --    2.42997   2.43228   2.43596   2.44256   2.44304
 Alpha virt. eigenvalues --    2.44762   2.45027   2.45690   2.46081   2.46763
 Alpha virt. eigenvalues --    2.47243   2.47803   2.48748   2.49222   2.49403
 Alpha virt. eigenvalues --    2.50698   2.51323   2.51666   2.52599   2.52830
 Alpha virt. eigenvalues --    2.54608   2.54869   2.55255   2.56651   2.57482
 Alpha virt. eigenvalues --    2.58329   2.60723   2.61873   2.63860   2.65393
 Alpha virt. eigenvalues --    2.65741   2.67626   2.68470   2.69967   2.71213
 Alpha virt. eigenvalues --    2.72276   2.72974   2.73515   2.74203   2.76344
 Alpha virt. eigenvalues --    2.77824   2.78236   2.79766   2.80392   2.81760
 Alpha virt. eigenvalues --    2.82401   2.83580   2.84132   2.86058   2.86339
 Alpha virt. eigenvalues --    2.87414   2.87883   2.88812   2.88998   2.90213
 Alpha virt. eigenvalues --    2.90534   2.91618   2.93029   2.93346   2.93607
 Alpha virt. eigenvalues --    2.94397   2.94680   2.95264   2.96566   2.96971
 Alpha virt. eigenvalues --    2.97855   2.98752   2.99572   3.01322   3.01522
 Alpha virt. eigenvalues --    3.02648   3.04047   3.04234   3.05375   3.06220
 Alpha virt. eigenvalues --    3.07196   3.08200   3.08637   3.09602   3.10516
 Alpha virt. eigenvalues --    3.11626   3.12687   3.13985   3.15815   3.15921
 Alpha virt. eigenvalues --    3.17343   3.18000   3.18857   3.20354   3.21569
 Alpha virt. eigenvalues --    3.22134   3.22613   3.23297   3.23951   3.24591
 Alpha virt. eigenvalues --    3.25415   3.26666   3.26720   3.27399   3.27615
 Alpha virt. eigenvalues --    3.27959   3.28463   3.29230   3.29879   3.30542
 Alpha virt. eigenvalues --    3.31861   3.32109   3.32315   3.32399   3.33264
 Alpha virt. eigenvalues --    3.33382   3.33921   3.35079   3.35861   3.36179
 Alpha virt. eigenvalues --    3.37272   3.37472   3.38547   3.39676   3.40090
 Alpha virt. eigenvalues --    3.41640   3.42012   3.43223   3.44029   3.44582
 Alpha virt. eigenvalues --    3.45537   3.46171   3.46813   3.47218   3.47573
 Alpha virt. eigenvalues --    3.47927   3.49223   3.50264   3.50368   3.51109
 Alpha virt. eigenvalues --    3.51350   3.52379   3.52881   3.53190   3.54289
 Alpha virt. eigenvalues --    3.54442   3.55448   3.56178   3.56682   3.57422
 Alpha virt. eigenvalues --    3.57887   3.57942   3.58529   3.59012   3.60059
 Alpha virt. eigenvalues --    3.60807   3.60863   3.61830   3.62047   3.62536
 Alpha virt. eigenvalues --    3.63037   3.63264   3.64029   3.64582   3.65222
 Alpha virt. eigenvalues --    3.65576   3.66152   3.67118   3.68019   3.68146
 Alpha virt. eigenvalues --    3.68858   3.69115   3.69349   3.70110   3.70597
 Alpha virt. eigenvalues --    3.70920   3.72161   3.72523   3.72848   3.73828
 Alpha virt. eigenvalues --    3.74137   3.74581   3.74783   3.75742   3.75870
 Alpha virt. eigenvalues --    3.76804   3.77330   3.77768   3.78412   3.78960
 Alpha virt. eigenvalues --    3.79307   3.79552   3.80819   3.81126   3.81291
 Alpha virt. eigenvalues --    3.82983   3.83624   3.84165   3.85498   3.85739
 Alpha virt. eigenvalues --    3.85922   3.87173   3.87865   3.88458   3.88812
 Alpha virt. eigenvalues --    3.90361   3.90869   3.91113   3.92541   3.93142
 Alpha virt. eigenvalues --    3.93919   3.95016   3.96483   3.96577   3.96843
 Alpha virt. eigenvalues --    3.98572   3.98949   3.99600   4.00992   4.01661
 Alpha virt. eigenvalues --    4.02499   4.03133   4.03331   4.04773   4.06132
 Alpha virt. eigenvalues --    4.07334   4.08305   4.10452   4.11191   4.12614
 Alpha virt. eigenvalues --    4.13210   4.15716   4.16637   4.17881   4.18931
 Alpha virt. eigenvalues --    4.19150   4.20034   4.20339   4.21487   4.22070
 Alpha virt. eigenvalues --    4.22455   4.23470   4.23609   4.24453   4.25130
 Alpha virt. eigenvalues --    4.25984   4.26566   4.27525   4.28213   4.28801
 Alpha virt. eigenvalues --    4.29607   4.30440   4.30765   4.32004   4.32316
 Alpha virt. eigenvalues --    4.33121   4.34990   4.35945   4.37906   4.39117
 Alpha virt. eigenvalues --    4.39939   4.41257   4.41431   4.43601   4.44549
 Alpha virt. eigenvalues --    4.46059   4.48227   4.49538   4.51458   4.51897
 Alpha virt. eigenvalues --    4.54507   4.55400   4.55872   4.56512   4.58410
 Alpha virt. eigenvalues --    4.65282   4.67520   4.68500   4.71359   4.72716
 Alpha virt. eigenvalues --    4.77574   4.92819   4.96156   4.99583   5.18702
 Alpha virt. eigenvalues --    5.22083   5.26597   5.34794   5.38707   5.43824
 Alpha virt. eigenvalues --    5.52195   5.57110   5.57854   5.63630   5.81481
 Alpha virt. eigenvalues --    5.86849   5.94283   6.08545   6.16186   6.88187
 Alpha virt. eigenvalues --    6.89654   6.91219   6.95699   6.99009   7.04018
 Alpha virt. eigenvalues --    7.06239   7.09469   7.10352   7.11137   7.13608
 Alpha virt. eigenvalues --    7.15870   7.18189   7.19749   7.21348   7.28170
 Alpha virt. eigenvalues --    7.28697   7.31468   7.32544   7.33694   7.39068
 Alpha virt. eigenvalues --    7.40661   7.44727   7.56523   7.61213  23.77164
 Alpha virt. eigenvalues --   23.79617  23.81652  23.90359  23.91805  23.94324
 Alpha virt. eigenvalues --   23.96893  23.98089  23.99562  24.01987  24.02749
 Alpha virt. eigenvalues --   24.04032  24.05077  24.06645  24.08395  24.09329
 Alpha virt. eigenvalues --   24.10892  24.12840  24.13575  24.15985  24.16663
 Alpha virt. eigenvalues --   24.22931  24.23690  24.29478  24.31956  24.34975
 Alpha virt. eigenvalues --   50.09083  50.12031  50.13577  50.16381  50.20687
          Condensed to atoms (all electrons):
 Mulliken atomic charges:
              1
     1  C   -0.072368
     2  C    0.316365
     3  C    0.040065
     4  C    0.342620
     5  C    0.394224
     6  C   -0.357241
     7  C   -0.715767
     8  C    0.190439
     9  C   -0.057780
    10  C   -0.194137
    11  C    0.222461
    12  O   -0.360172
    13  C    0.335502
    14  C   -0.193516
    15  C   -0.566646
    16  O   -0.415623
    17  C   -0.025425
    18  C    0.515867
    19  O   -0.283562
    20  C   -0.535922
    21  O   -0.330293
    22  C   -0.439283
    23  C    0.218318
    24  O   -0.450711
    25  C    0.273766
    26  C   -0.534374
    27  C   -0.543553
    28  C   -0.392143
    29  C   -0.413216
    30  H    0.155277
    31  H    0.137451
    32  C   -0.647705
    33  H    0.128522
    34  H    0.124677
    35  H    0.223807
    36  H    0.138426
    37  H    0.148487
    38  H    0.110658
    39  H    0.128667
    40  H    0.172873
    41  H    0.155092
    42  H    0.187755
    43  H    0.183997
    44  H    0.289363
    45  H    0.168865
    46  H    0.213936
    47  H    0.117692
    48  H    0.142994
    49  H    0.165633
    50  H    0.129395
    51  H    0.131908
    52  H    0.122422
    53  H    0.193222
    54  H    0.142644
    55  H    0.150694
    56  H    0.149576
    57  H    0.157373
    58  H    0.146064
    59  H    0.133288
    60  H    0.146759
    61  H    0.143766
    62  C   -0.582335
    63  H    0.162737
    64  H    0.120465
    65  H    0.137660
 Sum of Mulliken atomic charges =   0.00000
 Mulliken charges with hydrogens summed into heavy atoms:
              1
     1  C    0.056154
     2  C    0.316365
     3  C    0.177516
     4  C    0.342620
     5  C    0.394224
     6  C   -0.008757
     7  C   -0.715767
     8  C    0.190439
     9  C   -0.057780
    10  C   -0.194137
    11  C    0.222461
    12  O   -0.360172
    13  C    0.473927
    14  C    0.065629
    15  C   -0.110014
    16  O   -0.415623
    17  C    0.129852
    18  C    0.515867
    19  O   -0.283562
    20  C   -0.164170
    21  O   -0.040929
    22  C   -0.056482
    23  C    0.336009
    24  O   -0.450711
    25  C    0.273766
    26  C   -0.096351
    27  C   -0.289223
    28  C    0.094416
    29  C    0.039796
    32  C   -0.223892
    62  C   -0.161474
 Sum of Mulliken charges with hydrogens summed into heavy atoms =   0.00000
 Electronic spatial extent (au):  <R**2>=          11286.9366
 Charge=              0.0000 electrons
 Dipole moment (field-independent basis, Debye):
    X=             -5.0129    Y=              2.0927    Z=             -2.0247  Tot=              5.7973
 Quadrupole moment (field-independent basis, Debye-Ang):
   XX=           -192.0966   YY=           -178.0361   ZZ=           -187.8872
   XY=             -0.9016   XZ=             -5.5868   YZ=              1.4069
 Traceless Quadrupole moment (field-independent basis, Debye-Ang):
   XX=             -6.0900   YY=              7.9705   ZZ=             -1.8806
   XY=             -0.9016   XZ=             -5.5868   YZ=              1.4069
 Octapole moment (field-independent basis, Debye-Ang**2):
  XXX=            -47.4988  YYY=             52.0175  ZZZ=              0.3185  XYY=             -7.7839
  XXY=            -28.1760  XXZ=            -36.6995  XZZ=            -21.0202  YZZ=             12.3794
  YYZ=            -28.1899  XYZ=             -5.7368
 Hexadecapole moment (field-independent basis, Debye-Ang**3):
 XXXX=          -7603.5498 YYYY=          -4263.6655 ZZZZ=          -3579.4513 XXXY=            -31.4098
 XXXZ=             -0.9200 YYYX=              6.5300 YYYZ=            -12.9805 ZZZX=             27.2372
 ZZZY=             -1.0258 XXYY=          -1962.7910 XXZZ=          -1844.0933 YYZZ=          -1297.4873
 XXYZ=             -1.9444 YYXZ=            -17.2650 ZZXY=             46.4364
 N-N= 3.519694462917D+03 E-N=-1.027274905979D+04  KE= 1.381648799270D+03
  Exact polarizability: 309.896  -2.901 322.606   2.819  -8.825 297.877
 Approx polarizability: 428.980  -7.700 509.925   7.227 -32.704 442.527
 1\1\GINC-B0600\SP\RB3LYP\6-311++G(2d,p)\C26H34O5\CAOFEI\29-Mar-2021\0\
 \# rb3lyp/6-311++g(2d,p) geom=connectivity polar=optrot\\Title Card Re
 quired\\0,1\C,0,-1.525779,0.039325,3.214675\C,0,-1.623125,1.263725,2.6
 91976\C,0,-1.756772,1.474146,1.200225\C,0,-1.492714,0.224447,0.303744\
 C,0,-0.993856,-1.082522,0.977553\C,0,-1.553866,-1.228965,2.411024\C,0,
 -0.534039,0.743237,-0.800382\C,0,0.929345,0.616167,-0.432882\C,0,1.448
 491,-0.37226,0.333445\C,0,0.54428,-1.292231,1.023767\C,0,2.936027,-0.4
 7386,0.584075\O,0,3.553028,0.489129,0.989152\C,0,3.645315,-1.795014,0.
 272556\C,0,4.661857,-1.579063,-0.870694\C,0,4.338808,-2.326653,1.53682
 1\O,0,0.977297,-2.225872,1.686395\C,0,-0.637582,2.280704,-0.844818\C,0
 ,0.72304,2.70221,-1.44838\O,0,1.629045,1.614684,-0.968518\C,0,-0.86240
 7,2.615898,0.64096\O,0,-0.719138,0.085555,-2.041476\C,0,-1.606249,-2.1
 69304,0.055262\C,0,-2.961056,-1.576344,-0.312869\O,0,-2.731893,-0.1361
 46,-0.35858\C,0,-3.630356,-2.005113,-1.60121\C,0,-4.935385,-1.309494,-
 1.896045\C,0,-3.135009,-2.958673,-2.391782\C,0,0.734415,2.6848,-2.9754
 61\C,0,1.310963,4.004036,-0.91821\H,0,-1.473373,2.610753,-1.466146\H,0
 ,-2.800453,1.744909,0.994486\C,0,-1.674798,2.497951,3.555552\H,0,-1.46
 4297,-0.070498,4.295399\H,0,-2.588096,-1.594354,2.36488\H,0,-0.984761,
 -2.01578,2.909401\H,0,2.897902,-2.524812,-0.051129\H,0,5.384237,-0.819
 875,-0.553653\H,0,5.2249,-2.51161,-0.992521\H,0,4.863049,-3.260808,1.3
 1484\H,0,3.612681,-2.525105,2.326793\H,0,5.06944,-1.604309,1.908785\H,
 0,-1.31261,3.599323,0.786856\H,0,0.091764,2.620376,1.173956\H,0,-1.672
 051,-0.085007,-2.116307\H,0,-1.68522,-3.130062,0.566371\H,0,-0.985408,
 -2.299477,-0.832599\H,0,-3.677475,-1.753149,0.501402\H,0,-5.661659,-1.
 487576,-1.094419\H,0,-4.801343,-0.225998,-1.957367\H,0,-5.373354,-1.65
 8767,-2.832935\H,0,-2.206479,-3.475368,-2.178986\H,0,-3.657979,-3.2678
 56,-3.291599\H,0,0.339437,1.748052,-3.365054\H,0,1.754579,2.819452,-3.
 342544\H,0,0.126565,3.508092,-3.362065\H,0,0.661692,4.842593,-1.185526
 \H,0,2.292359,4.181949,-1.362766\H,0,1.432542,3.991047,0.164352\H,0,-1
 .652322,2.23912,4.615955\H,0,-0.836303,3.174459,3.361172\H,0,-2.59062,
 3.072606,3.3698\C,0,4.042131,-1.181179,-2.213125\H,0,3.537064,-0.21279
 7,-2.159977\H,0,3.308305,-1.919992,-2.551331\H,0,4.810502,-1.104167,-2
 .987975\\Version=EM64L-G09RevB.01\State=1-A\HF=-1387.7328177\RMSD=3.87
 7e-09\Dipole=-1.9722338,0.8233498,-0.7965787\Polar=309.896395,-2.90055
 37,322.6059803,2.8189641,-8.8249952,297.8771973\HyperPolar=146.5415196
 ,-24.5929641,-161.1412735,-71.7446624,-1.9687509,48.3287289,30.6345174
 ,-86.4839849,-37.8280426,59.2133508\GPTens=24.8490498,-5.8461219,-11.6
 328641,68.4267828,-71.3133834,50.7947005,1.2483077,-25.5145706,51.4717
 856\OptRot=-1.292603,0.2517991,-0.7439931,0.2517991,10.456455,2.160172
 1,-0.7439931,2.1601721,-4.1564\DQPolar=60.5177626,38.2019856,-98.71974
 82,-211.0345343,-102.1652827,-97.0394749,-165.3223065,158.8121056,6.51
 02009,-13.0527727,-173.3425422,-22.6996971,-16.7148744,-64.4250031,81.
 1398775,-207.8553257,-82.1328697,-12.4809695\Quadrupole=-4.5277376,5.9
 259038,-1.3981662,-0.6703451,-4.1536313,1.0459613\PG=C01 [X(C26H34O5)]
 \\@


 The mind is not a vessel to be filled but a fire to be kindled.
                                  -- Plutarch
 Job cpu time:  2 days 15 hours 44 minutes  8.5 seconds.
 File lengths (MBytes):  RWF=   1746 Int=      0 D2E=      0 Chk=     63 Scr=      1
 Normal termination of Gaussian 09 at Mon Mar 29 20:44:59 2021.
